 vasp.5.4.4.18Apr17-6-g9f103f2a35 (build May 09 2017 17:24:04) gamma-only       
  
 executed on             LinuxIFC date 2021.12.30  10:48:31
 running on   24 total cores
 distrk:  each k-point on   24 cores,    1 groups
 distr:  one band on NCORES_PER_BAND=   1 cores,   24 groups


--------------------------------------------------------------------------------------------------------


 INCAR:
 POTCAR:    PAW_PBE Sb 06Sep2000                  
 POTCAR:    PAW_PBE Cs_sv 08Apr2002               
 POTCAR:    PAW_PBE Zr_sv 04Jan2005               
 POTCAR:    PAW_PBE Cl 06Sep2000                  

 ----------------------------------------------------------------------------- 
|                                                                             |
|           W    W    AA    RRRRR   N    N  II  N    N   GGGG   !!!           |
|           W    W   A  A   R    R  NN   N  II  NN   N  G    G  !!!           |
|           W    W  A    A  R    R  N N  N  II  N N  N  G       !!!           |
|           W WW W  AAAAAA  RRRRR   N  N N  II  N  N N  G  GGG   !            |
|           WW  WW  A    A  R   R   N   NN  II  N   NN  G    G                |
|           W    W  A    A  R    R  N    N  II  N    N   GGGG   !!!           |
|                                                                             |
|      For optimal performance we recommend to set                            |
|        NCORE= 4 - approx SQRT( number of cores)                             |
|      NCORE specifies how many cores store one orbital (NPAR=cpu/NCORE).     |
|      This setting can  greatly improve the performance of VASP for DFT.     |
|      The default,   NCORE=1            might be grossly inefficient         |
|      on modern multi-core architectures or massively parallel machines.     |
|      Do your own testing !!!!                                               |
|      Unfortunately you need to use the default for GW and RPA calculations. |
|      (for HF NCORE is supported but not extensively tested yet)             |
|                                                                             |
 ----------------------------------------------------------------------------- 

 POTCAR:    PAW_PBE Sb 06Sep2000                  
   VRHFIN =Sb: s2p3                                                             
   LEXCH  = PE                                                                  
   EATOM  =   149.9515 eV,   11.0211 Ry                                         
                                                                                
   TITEL  = PAW_PBE Sb 06Sep2000                                                
   LULTRA =        F    use ultrasoft PP ?                                      
   IUNSCR =        1    unscreen: 0-lin 1-nonlin 2-no                           
   RPACOR =    2.200    partial core radius                                     
   POMASS =  121.750; ZVAL   =    5.000    mass and valenz                      
   RCORE  =    2.300    outmost cutoff radius                                   
   RWIGS  =    2.980; RWIGS  =    1.577    wigner-seitz radius (au A)           
   ENMAX  =  172.069; ENMIN  =  129.052 eV                                      
   ICORE  =        3    local potential                                         
   LCOR   =        T    correct aug charges                                     
   LPAW   =        T    paw PP                                                  
   EAUG   =  380.513                                                            
   DEXC   =    0.000                                                            
   RMAX   =    2.346    core radius for proj-oper                               
   RAUG   =    1.300    factor for augmentation sphere                          
   RDEP   =    2.360    radius for radial grids                                 
   RDEPT  =    2.192    core radius for aug-charge                              
                                                                                
   Atomic configuration                                                         
   13 entries                                                                   
     n  l   j            E        occ.                                          
     1  0  0.50    -30298.2797   2.0000                                         
     2  0  0.50     -4610.2252   2.0000                                         
     2  1  1.50     -4138.3407   6.0000                                         
     3  0  0.50      -903.8815   2.0000                                         
     3  1  1.50      -750.1337   6.0000                                         
     3  2  2.50      -515.7092  10.0000                                         
     4  0  0.50      -148.8034   2.0000                                         
     4  1  1.50      -101.7581   6.0000                                         
     4  2  2.50       -33.5048  10.0000                                         
     5  0  0.50       -12.8298   2.0000                                         
     5  1  0.50        -4.8276   3.0000                                         
     5  2  1.50        -4.0817   0.0000                                         
     4  3  2.50        -4.0817   0.0000                                         
   Description                                                                  
     l       E           TYP  RCUT    TYP  RCUT                                 
     0    -12.8297861     23  2.300                                             
     0     13.6058260     23  2.300                                             
     1     -4.8275512     23  2.300                                             
     1     -0.7245443     23  2.300                                             
     2     -4.0817478     23  2.300                                             
     3     -1.3605826     23  2.300                                             
  local pseudopotential read in
  partial core-charges read in
  partial kinetic energy density read in
  atomic valenz-charges read in
  non local Contribution for L=           0  read in
    real space projection operators read in
  non local Contribution for L=           0  read in
    real space projection operators read in
  non local Contribution for L=           1  read in
    real space projection operators read in
  non local Contribution for L=           1  read in
    real space projection operators read in
  non local Contribution for L=           2  read in
    real space projection operators read in
    PAW grid and wavefunctions read in
 
   number of l-projection  operators is LMAX  =           5
   number of lm-projection operators is LMMAX =          13
 
 POTCAR:    PAW_PBE Cs_sv 08Apr2002               
   VRHFIN =Cs: 5s5p6s                                                           
   LEXCH  = PE                                                                  
   EATOM  =   555.6835 eV,   40.8416 Ry                                         
                                                                                
   TITEL  = PAW_PBE Cs_sv 08Apr2002                                             
   LULTRA =        F    use ultrasoft PP ?                                      
   IUNSCR =        1    unscreen: 0-lin 1-nonlin 2-no                           
   RPACOR =    2.200    partial core radius                                     
   POMASS =  132.900; ZVAL   =    9.000    mass and valenz                      
   RCORE  =    2.500    outmost cutoff radius                                   
   RWIGS  =    2.500; RWIGS  =    1.323    wigner-seitz radius (au A)           
   ENMAX  =  220.318; ENMIN  =  165.238 eV                                      
   RCLOC  =    2.207    cutoff for local pot                                    
   LCOR   =        T    correct aug charges                                     
   LPAW   =        T    paw PP                                                  
   EAUG   =  407.933                                                            
   DEXC   =    0.000                                                            
   RMAX   =    2.554    core radius for proj-oper                               
   RAUG   =    1.300    factor for augmentation sphere                          
   RDEP   =    2.590    radius for radial grids                                 
   RDEPT  =    2.117    core radius for aug-charge                              
                                                                                
   Atomic configuration                                                         
   13 entries                                                                   
     n  l   j            E        occ.                                          
     1  0  0.50    -35790.1377   2.0000                                         
     2  0  0.50     -5613.6201   2.0000                                         
     2  1  1.50     -5035.0101   6.0000                                         
     3  0  0.50     -1167.0767   2.0000                                         
     3  1  1.50      -980.9754   6.0000                                         
     3  2  2.50      -708.0703  10.0000                                         
     4  0  0.50      -220.2386   2.0000                                         
     4  1  1.50      -160.7596   6.0000                                         
     4  2  2.50       -74.2354  10.0000                                         
     5  0  0.50       -26.7287   2.0000                                         
     6  0  0.50        -2.0862   1.0000                                         
     5  1  1.50       -13.5159   6.0000                                         
     5  2  2.50        -0.4136   0.0000                                         
   Description                                                                  
     l       E           TYP  RCUT    TYP  RCUT                                 
     0    -26.7287425     23  1.900                                             
     0     -2.0862306     23  1.900                                             
     1    -13.5158719     23  2.500                                             
     1     -2.7211652     23  2.500                                             
     2     -0.4136171     23  2.500                                             
  local pseudopotential read in
  partial core-charges read in
  partial kinetic energy density read in
  atomic valenz-charges read in
  non local Contribution for L=           0  read in
    real space projection operators read in
  non local Contribution for L=           0  read in
    real space projection operators read in
  non local Contribution for L=           1  read in
    real space projection operators read in
  non local Contribution for L=           1  read in
    real space projection operators read in
  non local Contribution for L=           2  read in
    real space projection operators read in
    PAW grid and wavefunctions read in
 
   number of l-projection  operators is LMAX  =           5
   number of lm-projection operators is LMMAX =          13
 
 POTCAR:    PAW_PBE Zr_sv 04Jan2005               
   VRHFIN =Zr: 4s4p5s4d                                                         
   LEXCH  = PE                                                                  
   EATOM  =  1284.2219 eV,   94.3876 Ry                                         
                                                                                
   TITEL  = PAW_PBE Zr_sv 04Jan2005                                             
   LULTRA =        F    use ultrasoft PP ?                                      
   IUNSCR =        1    unscreen: 0-lin 1-nonlin 2-no                           
   RPACOR =    2.200    partial core radius                                     
   POMASS =   91.224; ZVAL   =   12.000    mass and valenz                      
   RCORE  =    2.500    outmost cutoff radius                                   
   RWIGS  =    3.070; RWIGS  =    1.625    wigner-seitz radius (au A)           
   ENMAX  =  229.898; ENMIN  =  172.424 eV                                      
   ICORE  =        3    local potential                                         
   LCOR   =        T    correct aug charges                                     
   LPAW   =        T    paw PP                                                  
   EAUG   =  461.257                                                            
   DEXC   =    0.000                                                            
   RMAX   =    2.561    core radius for proj-oper                               
   RAUG   =    1.300    factor for augmentation sphere                          
   RDEP   =    2.597    radius for radial grids                                 
   RDEPT  =    2.007    core radius for aug-charge                              
                                                                                
   Atomic configuration                                                         
   11 entries                                                                   
     n  l   j            E        occ.                                          
     1  0  0.50    -17820.0161   2.0000                                         
     2  0  0.50     -2467.0882   2.0000                                         
     2  1  1.50     -2199.6095   6.0000                                         
     3  0  0.50      -402.4863   2.0000                                         
     3  1  1.50      -315.3675   6.0000                                         
     3  2  2.50      -172.4472  10.0000                                         
     4  0  0.50       -52.4146   2.0000                                         
     5  0  0.50        -3.8421   1.0000                                         
     4  1  1.50       -30.5054   6.0000                                         
     4  2  2.50        -2.3341   3.0000                                         
     4  3  2.50        -1.3606   0.0000                                         
   Description                                                                  
     l       E           TYP  RCUT    TYP  RCUT                                 
     0    -52.4145962     23  2.200                                             
     0     -3.8421270     23  2.500                                             
     1    -30.5053914     23  2.200                                             
     1     20.4087390     23  2.200                                             
     2     -2.3340816     23  2.500                                             
     2     -0.6120942     23  2.500                                             
     3     -4.0817478     23  2.500                                             
  local pseudopotential read in
  partial core-charges read in
  partial kinetic energy density read in
  atomic valenz-charges read in
  non local Contribution for L=           0  read in
    real space projection operators read in
  non local Contribution for L=           0  read in
    real space projection operators read in
  non local Contribution for L=           1  read in
    real space projection operators read in
  non local Contribution for L=           1  read in
    real space projection operators read in
  non local Contribution for L=           2  read in
    real space projection operators read in
  non local Contribution for L=           2  read in
    real space projection operators read in
    PAW grid and wavefunctions read in
 
   number of l-projection  operators is LMAX  =           6
   number of lm-projection operators is LMMAX =          18
 
 POTCAR:    PAW_PBE Cl 06Sep2000                  
   VRHFIN =Cl: s2p5                                                             
   LEXCH  = PE                                                                  
   EATOM  =   409.7259 eV,   30.1140 Ry                                         
                                                                                
   TITEL  = PAW_PBE Cl 06Sep2000                                                
   LULTRA =        F    use ultrasoft PP ?                                      
   IUNSCR =        1    unscreen: 0-lin 1-nonlin 2-no                           
   RPACOR =    1.500    partial core radius                                     
   POMASS =   35.453; ZVAL   =    7.000    mass and valenz                      
   RCORE  =    1.900    outmost cutoff radius                                   
   RWIGS  =    2.100; RWIGS  =    1.111    wigner-seitz radius (au A)           
   ENMAX  =  262.472; ENMIN  =  196.854 eV                                      
   ICORE  =        2    local potential                                         
   LCOR   =        T    correct aug charges                                     
   LPAW   =        T    paw PP                                                  
   EAUG   =  356.192                                                            
   DEXC   =    0.000                                                            
   RMAX   =    1.945    core radius for proj-oper                               
   RAUG   =    1.300    factor for augmentation sphere                          
   RDEP   =    2.020    radius for radial grids                                 
   RDEPT  =    1.678    core radius for aug-charge                              
                                                                                
   Atomic configuration                                                         
    6 entries                                                                   
     n  l   j            E        occ.                                          
     1  0  0.50     -2751.1850   2.0000                                         
     2  0  0.50      -252.6861   2.0000                                         
     2  1  1.50      -191.6157   6.0000                                         
     3  0  0.50       -20.6916   2.0000                                         
     3  1  0.50        -8.5949   5.0000                                         
     3  2  1.50        -8.1635   0.0000                                         
   Description                                                                  
     l       E           TYP  RCUT    TYP  RCUT                                 
     0    -20.6915656     23  1.900                                             
     0    -22.0521482     23  1.900                                             
     1     -8.5948577     23  1.900                                             
     1     -5.3847331     23  1.900                                             
     2     -8.1634956     23  1.900                                             
  local pseudopotential read in
  partial core-charges read in
  partial kinetic energy density read in
  atomic valenz-charges read in
  non local Contribution for L=           0  read in
    real space projection operators read in
  non local Contribution for L=           0  read in
    real space projection operators read in
  non local Contribution for L=           1  read in
    real space projection operators read in
  non local Contribution for L=           1  read in
    real space projection operators read in
    PAW grid and wavefunctions read in
 
   number of l-projection  operators is LMAX  =           4
   number of lm-projection operators is LMMAX =           8
 
 Optimization of the real space projectors (new method)

 maximal supplied QI-value         = 16.25
 optimisation between [QCUT,QGAM] = [ 10.24, 20.48] = [ 29.35,117.42] Ry 
 Optimized for a Real-space Cutoff    1.38 Angstroem

   l    n(q)    QCUT    max X(q) W(low)/X(q) W(high)/X(q)  e(spline) 
   0      8    10.239    19.000    0.74E-04    0.15E-03    0.61E-07
   0      8    10.239     9.057    0.91E-04    0.19E-03    0.74E-07
   1      8    10.239   125.345    0.50E-03    0.38E-03    0.74E-07
   1      8    10.239    79.963    0.49E-03    0.37E-03    0.73E-07
   2      7    10.239     6.963    0.74E-04    0.11E-03    0.40E-07
 Optimization of the real space projectors (new method)

 maximal supplied QI-value         = 15.12
 optimisation between [QCUT,QGAM] = [ 10.13, 20.41] = [ 28.73,116.64] Ry 
 Optimized for a Real-space Cutoff    1.60 Angstroem

   l    n(q)    QCUT    max X(q) W(low)/X(q) W(high)/X(q)  e(spline) 
   0     10    10.129    25.322    0.34E-04    0.82E-04    0.39E-06
   0     10    10.129    99.187    0.33E-04    0.78E-04    0.38E-06
   1      9    10.129    11.761    0.37E-03    0.18E-03    0.22E-06
   1      9    10.129     8.275    0.41E-03    0.21E-03    0.24E-06
   2      9    10.129     3.829    0.45E-04    0.31E-03    0.23E-06
 Optimization of the real space projectors (new method)

 maximal supplied QI-value         = 15.12
 optimisation between [QCUT,QGAM] = [ 10.13, 20.41] = [ 28.73,116.64] Ry 
 Optimized for a Real-space Cutoff    1.60 Angstroem

   l    n(q)    QCUT    max X(q) W(low)/X(q) W(high)/X(q)  e(spline) 
   0     10    10.129    12.107    0.22E-04    0.16E-04    0.41E-07
   0     10    10.129     9.948    0.28E-04    0.32E-04    0.88E-07
   1      9    10.129     3.563    0.30E-04    0.37E-04    0.43E-07
   1      9    10.129     4.524    0.45E-03    0.38E-03    0.34E-06
   2      9    10.129    87.261    0.10E-03    0.10E-03    0.15E-06
   2      9    10.129    70.950    0.99E-04    0.10E-03    0.15E-06
 Optimization of the real space projectors (new method)

 maximal supplied QI-value         = 19.84
 optimisation between [QCUT,QGAM] = [ 10.12, 20.44] = [ 28.68,116.96] Ry 
 Optimized for a Real-space Cutoff    1.23 Angstroem

   l    n(q)    QCUT    max X(q) W(low)/X(q) W(high)/X(q)  e(spline) 
   0      7    10.119   168.010    0.54E-04    0.25E-03    0.48E-07
   0      7    10.119   164.674    0.53E-04    0.25E-03    0.47E-07
   1      7    10.119    69.222    0.45E-03    0.63E-03    0.13E-06
   1      7    10.119    56.786    0.45E-03    0.62E-03    0.13E-06
  PAW_PBE Sb 06Sep2000                  :
 energy of atom  1       EATOM= -149.9515
 kinetic energy error for atom=    0.0008 (will be added to EATOM!!)
  PAW_PBE Cs_sv 08Apr2002               :
 energy of atom  2       EATOM= -555.6835
 kinetic energy error for atom=    0.0041 (will be added to EATOM!!)
  PAW_PBE Zr_sv 04Jan2005               :
 energy of atom  3       EATOM=-1284.2219
 kinetic energy error for atom=    0.0075 (will be added to EATOM!!)
  PAW_PBE Cl 06Sep2000                  :
 energy of atom  4       EATOM= -409.7259
 kinetic energy error for atom=    0.0089 (will be added to EATOM!!)
 
 
 POSCAR: Cs8 Zr4 Cl24                            
  positions in direct lattice
  velocities in cartesian coordinates
 exchange correlation table for  LEXCH =        8
   RHO(1)=    0.500       N(1)  =     2000
   RHO(2)=  100.500       N(2)  =     4000
 


--------------------------------------------------------------------------------------------------------


 ion  position               nearest neighbor table
   1  0.483  0.500  0.500-  15 2.46  16 2.63  29 2.63  31 2.63  32 2.63
   2  0.743  0.252  0.252-
   3  0.743  0.748  0.252-
   4  0.743  0.748  0.748-
   5  0.743  0.252  0.748-
   6  0.255  0.242  0.758-
   7  0.255  0.758  0.758-
   8  0.255  0.758  0.242-
   9  0.255  0.242  0.242-
  10  0.506  0.000  0.000-  21 2.47  22 2.48  26 2.48  25 2.48  35 2.48  18 2.51
  11  0.004  0.500  0.000-  27 2.48  24 2.48  19 2.48  20 2.48  17 2.50  28 2.50
  12  0.004  0.000  0.500-  33 2.48  30 2.48  23 2.48  34 2.48  13 2.50  14 2.50
  13  0.006  0.231  0.500-  12 2.50
  14  0.006  0.769  0.500-  12 2.50
  15  0.710  0.500  0.500-   1 2.46
  16  0.490  0.500  0.257-   1 2.63
  17  0.006  0.500  0.231-  11 2.50
  18  0.274  0.000  0.000-  10 2.51
  19  0.003  0.730  0.000-  11 2.48
  20  0.003  0.270  0.000-  11 2.48
  21  0.735  0.000  0.000-  10 2.47
  22  0.504  0.000  0.770-  10 2.48
  23  0.003  0.000  0.730-  12 2.48
  24  0.774  0.500  0.000-  11 2.48
  25  0.504  0.230  0.000-  10 2.48
  26  0.504  0.770  0.000-  10 2.48
  27  0.233  0.500  0.000-  11 2.48
  28  0.006  0.500  0.769-  11 2.50
  29  0.490  0.500  0.743-   1 2.63
  30  0.774  0.000  0.500-  12 2.48
  31  0.490  0.743  0.500-   1 2.63
  32  0.490  0.257  0.500-   1 2.63
  33  0.233  0.000  0.500-  12 2.48
  34  0.003  0.000  0.270-  12 2.48
  35  0.504  0.000  0.230-  10 2.48
 
  LATTYP: Found a simple cubic cell.
 ALAT       =    10.7995840000
  
  Lattice vectors:
  
 A1 = (  10.7995840000,   0.0000000000,   0.0000000000)
 A2 = (   0.0000000000,  10.7995840000,   0.0000000000)
 A3 = (   0.0000000000,   0.0000000000,  10.7995840000)


Analysis of symmetry for initial positions (statically):
=====================================================================
 Subroutine PRICEL returns:
 Original cell was already a primitive cell.
 

 Routine SETGRP: Setting up the symmetry group for a 
 simple cubic supercell.


 Subroutine GETGRP returns: Found  8 space group operations
 (whereof  8 operations were pure point group operations)
 out of a pool of 48 trial point group operations.


The static configuration has the point symmetry C_4v.


Analysis of symmetry for dynamics (positions and initial velocities):
=====================================================================
 Subroutine PRICEL returns:
 Original cell was already a primitive cell.
 

 Routine SETGRP: Setting up the symmetry group for a 
 simple cubic supercell.


 Subroutine GETGRP returns: Found  8 space group operations
 (whereof  8 operations were pure point group operations)
 out of a pool of 48 trial point group operations.


The dynamic configuration has the point symmetry C_4v.


Analysis of structural, dynamic, and magnetic symmetry:
=====================================================================
 Subroutine PRICEL returns:
 Original cell was already a primitive cell.
 

 Routine SETGRP: Setting up the symmetry group for a 
 simple cubic supercell.


 Subroutine GETGRP returns: Found  8 space group operations
 (whereof  8 operations were pure point group operations)
 out of a pool of 48 trial point group operations.


The magnetic configuration has the point symmetry C_4v.


 Subroutine INISYM returns: Found  8 space group operations
 (whereof  8 operations are pure point group operations),
 and found     1 'primitive' translations

 
 
 KPOINTS: K-Mesh Generated with KP-Resolved Value 

Automatic generation of k-mesh.
Space group operators:
 irot       det(A)        alpha          n_x          n_y          n_z        tau_x        tau_y        tau_z
    1     1.000000     0.000000     1.000000     0.000000     0.000000     0.000000     0.000000     0.000000
    2    -1.000000   180.000000     0.000000     0.707107     0.707107     0.000000     0.000000     0.000000
    3    -1.000000   180.000000     0.000000     0.000000     1.000000     0.000000     0.000000     0.000000
    4     1.000000    90.000000    -1.000000     0.000000     0.000000     0.000000     0.000000     0.000000
    5     1.000000   180.000000     1.000000     0.000000     0.000000     0.000000     0.000000     0.000000
    6     1.000000    90.000000     1.000000     0.000000     0.000000     0.000000     0.000000     0.000000
    7    -1.000000   180.000000     0.000000     1.000000     0.000000     0.000000     0.000000     0.000000
    8    -1.000000   180.000000     0.000000    -0.707107     0.707107     0.000000     0.000000     0.000000
 
 Subroutine IBZKPT returns following result:
 ===========================================
 
 Found      1 irreducible k-points:
 
 Following reciprocal coordinates:
            Coordinates               Weight
  0.000000  0.000000  0.000000      1.000000
 
 Following cartesian coordinates:
            Coordinates               Weight
  0.000000  0.000000  0.000000      1.000000
 
 
 Subroutine IBZKPT_HF returns following result:
 ==============================================
 
 Found      1 k-points in 1st BZ
 the following      1 k-points will be used (e.g. in the exchange kernel)
 Following reciprocal coordinates:   # in IRBZ
  0.000000  0.000000  0.000000    1.00000000   1 t-inv F


--------------------------------------------------------------------------------------------------------




 Dimension of arrays:
   k-points           NKPTS =      1   k-points in BZ     NKDIM =      1   number of bands    NBANDS=    192
   number of dos      NEDOS =    301   number of ions     NIONS =     35
   non local maximal  LDIM  =      6   non local SUM 2l+1 LMDIM =     18
   total plane-waves  NPLWV = 157464
   max r-space proj   IRMAX =   2196   max aug-charges    IRDMAX=   7137
   dimension x,y,z NGX =    54 NGY =   54 NGZ =   54
   dimension x,y,z NGXF=   108 NGYF=  108 NGZF=  108
   support grid    NGXF=   108 NGYF=  108 NGZF=  108
   ions per type =               1   8   3  23
   NGX,Y,Z   is equivalent  to a cutoff of   8.31,  8.31,  8.31 a.u.
   NGXF,Y,Z  is equivalent  to a cutoff of  16.63, 16.63, 16.63 a.u.

 SYSTEM =  unknown system                          
 POSCAR =  Cs8 Zr4 Cl24                            

 Startparameter for this run:
   NWRITE =      2    write-flag & timer
   PREC   = normal    normal or accurate (medium, high low for compatibility)
   ISTART =      1    job   : 0-new  1-cont  2-samecut
   ICHARG =      0    charge: 1-file 2-atom 10-const
   ISPIN  =      2    spin polarized calculation?
   LNONCOLLINEAR =      F non collinear calculations
   LSORBIT =      F    spin-orbit coupling
   INIWAV =      1    electr: 0-lowe 1-rand  2-diag
   LASPH  =      F    aspherical Exc in radial PAW
   METAGGA=      F    non-selfconsistent MetaGGA calc.

 Electronic Relaxation 1
   ENCUT  =  400.0 eV  29.40 Ry    5.42 a.u.  17.61 17.61 17.61*2*pi/ulx,y,z
   ENINI  =  400.0     initial cutoff
   ENAUG  =  461.3 eV  augmentation charge cutoff
   NELM   =     30;   NELMIN=  5; NELMDL=  0     # of ELM steps 
   EDIFF  = 0.1E-03   stopping-criterion for ELM
   LREAL  =      T    real-space projection
   NLSPLINE    = F    spline interpolate recip. space projectors
   LCOMPAT=      F    compatible to vasp.4.4
   GGA_COMPAT  = T    GGA compatible to vasp.4.4-vasp.4.6
   LMAXPAW     = -100 max onsite density
   LMAXMIX     =    2 max onsite mixed and CHGCAR
   VOSKOWN=      0    Vosko Wilk Nusair interpolation
   ROPT   =   -0.00050  -0.00050  -0.00050  -0.00050
 Ionic relaxation
   EDIFFG = -.1E-01   stopping-criterion for IOM
   NSW    =    457    number of steps for IOM
   NBLOCK =      1;   KBLOCK =    457    inner block; outer block 
   IBRION =      6    ionic relax: 0-MD 1-quasi-New 2-CG
   NFREE  =      2    steps in history (QN), initial steepest desc. (CG)
   ISIF   =      2    stress and relaxation
   IWAVPR =     11    prediction:  0-non 1-charg 2-wave 3-comb
   ISYM   =      2    0-nonsym 1-usesym 2-fastsym
   LCORR  =      T    Harris-Foulkes like correction to forces

   POTIM  = 0.0150    time-step for ionic-motion
   TEIN   =    0.0    initial temperature
   TEBEG  =    0.0;   TEEND  =   0.0 temperature during run
   SMASS  =  -3.00    Nose mass-parameter (am)
   estimated Nose-frequenzy (Omega)   =  0.10E-29 period in steps =****** mass=  -0.267E-26a.u.
   SCALEE = 1.0000    scale energy and forces
   NPACO  =    256;   APACO  = 16.0  distance and # of slots for P.C.
   PSTRESS=    0.0 pullay stress

  Mass of Ions in am
   POMASS = 121.75132.90 91.22 35.45
  Ionic Valenz
   ZVAL   =   5.00  9.00 12.00  7.00
  Atomic Wigner-Seitz radii
   RWIGS  =  -1.00 -1.00 -1.00 -1.00
  virtual crystal weights 
   VCA    =   1.00  1.00  1.00  1.00
   NELECT =     274.0000    total number of electrons
   NUPDOWN=      -1.0000    fix difference up-down

 DOS related values:
   EMIN   =  10.00;   EMAX   =-10.00  energy-range for DOS
   EFERMI =   0.00
   ISMEAR =     0;   SIGMA  =   0.05  broadening in eV -4-tet -1-fermi 0-gaus

 Electronic relaxation 2 (details)
   IALGO  =     38    algorithm
   LDIAG  =      T    sub-space diagonalisation (order eigenvalues)
   LSUBROT=      F    optimize rotation matrix (better conditioning)
   TURBO    =      0    0=normal 1=particle mesh
   IRESTART =      0    0=no restart 2=restart with 2 vectors
   NREBOOT  =      0    no. of reboots
   NMIN     =      0    reboot dimension
   EREF     =   0.00    reference energy to select bands
   IMIX   =      4    mixing-type and parameters
     AMIX     =   0.40;   BMIX     =  1.00
     AMIX_MAG =   1.60;   BMIX_MAG =  1.00
     AMIN     =   0.10
     WC   =   100.;   INIMIX=   1;  MIXPRE=   1;  MAXMIX= -45

 Intra band minimization:
   WEIMIN = 0.0010     energy-eigenvalue tresh-hold
   EBREAK =  0.13E-06  absolut break condition
   DEPER  =   0.30     relativ break condition  

   TIME   =   0.40     timestep for ELM

  volume/ion in A,a.u.               =      35.99       242.86
  Fermi-wavevector in a.u.,A,eV,Ry     =   0.984581  1.860588 13.189477  0.969399
  Thomas-Fermi vector in A             =   2.115824
 
 Write flags
   LWAVE        =      T    write WAVECAR
   LDOWNSAMPLE  =      F    k-point downsampling of WAVECAR
   LCHARG       =      T    write CHGCAR
   LVTOT        =      F    write LOCPOT, total local potential
   LVHAR        =      F    write LOCPOT, Hartree potential only
   LELF         =      F    write electronic localiz. function (ELF)
   LORBIT       =     11    0 simple, 1 ext, 2 COOP (PROOUT), +10 PAW based schemes


 Dipole corrections
   LMONO  =      F    monopole corrections only (constant potential shift)
   LDIPOL =      F    correct potential (dipole corrections)
   IDIPOL =      0    1-x, 2-y, 3-z, 4-all directions 
   EPSILON=  1.0000000 bulk dielectric constant

 Exchange correlation treatment:
   GGA     =    PE    GGA type
   LEXCH   =     8    internal setting for exchange type
   VOSKOWN=      0    Vosko Wilk Nusair interpolation
   LHFCALC =     F    Hartree Fock is set to
   LHFONE  =     F    Hartree Fock one center treatment
   AEXX    =    0.0000 exact exchange contribution

 Linear response parameters
   LEPSILON=     F    determine dielectric tensor
   LRPA    =     F    only Hartree local field effects (RPA)
   LNABLA  =     F    use nabla operator in PAW spheres
   LVEL    =     F    velocity operator in full k-point grid
   LINTERFAST=   F  fast interpolation
   KINTER  =     0    interpolate to denser k-point grid
   CSHIFT  =0.1000    complex shift for real part using Kramers Kronig
   OMEGAMAX=  -1.0    maximum frequency
   DEG_THRESHOLD= 0.2000000E-02 threshold for treating states as degnerate
   RTIME   =   -0.100 relaxation time in fs
  (WPLASMAI=    0.000 imaginary part of plasma frequency in eV, 0.658/RTIME)
   DFIELD  = 0.0000000 0.0000000 0.0000000 field for delta impulse in time
 
 Orbital magnetization related:
   ORBITALMAG=     F  switch on orbital magnetization
   LCHIMAG   =     F  perturbation theory with respect to B field
   DQ        =  0.001000  dq finite difference perturbation B field
   LLRAUG    =     F  two centre corrections for induced B field



--------------------------------------------------------------------------------------------------------


 finite differences with symmetry
 charge density and potential will be updated during run
 spin polarized calculation
 Variant of blocked Davidson
 Davidson routine will perform the subspace rotation
 perform sub-space diagonalisation
    after iterative eigenvector-optimisation
 modified Broyden-mixing scheme, WC =      100.0
 initial mixing is a Kerker type mixing with AMIX =  0.4000 and BMIX =      1.0000
 Hartree-type preconditioning will be used
 using additional bands           55
 real space projection scheme for non local part
 use partial core corrections
 calculate Harris-corrections to forces 
   (improved forces if not selfconsistent)
 use gradient corrections 
 use of overlap-Matrix (Vanderbilt PP)
 Gauss-broadening in eV      SIGMA  =   0.05


--------------------------------------------------------------------------------------------------------


  energy-cutoff  :      400.00
  volume of cell :     1259.57
      direct lattice vectors                 reciprocal lattice vectors
    10.799584000  0.000000000  0.000000000     0.092596159  0.000000000  0.000000000
     0.000000000 10.799584000  0.000000000     0.000000000  0.092596159  0.000000000
     0.000000000  0.000000000 10.799584000     0.000000000  0.000000000  0.092596159

  length of vectors
    10.799584000 10.799584000 10.799584000     0.092596159  0.092596159  0.092596159


 
 old parameters found on file WAVECAR:
  energy-cutoff  :      400.00
  volume of cell :     1259.57
      direct lattice vectors                 reciprocal lattice vectors
    10.799584000  0.000000000  0.000000000     0.092596159  0.000000000  0.000000000
     0.000000000 10.799584000  0.000000000     0.000000000  0.092596159  0.000000000
     0.000000000  0.000000000 10.799584000     0.000000000  0.000000000  0.092596159

  length of vectors

 
 k-points in units of 2pi/SCALE and weight: K-Mesh Generated with KP-Resolved Value 
   0.00000000  0.00000000  0.00000000       1.000
 
 k-points in reciprocal lattice and weights: K-Mesh Generated with KP-Resolved Value 
   0.00000000  0.00000000  0.00000000       1.000
 
 position of ions in fractional coordinates (direct lattice) 
   0.48312100  0.50000000  0.50000000
   0.74267099  0.25220094  0.25220094
   0.74267099  0.74779906  0.25220094
   0.74267099  0.74779906  0.74779906
   0.74267099  0.25220094  0.74779906
   0.25520609  0.24231906  0.75768094
   0.25520609  0.75768094  0.75768094
   0.25520609  0.75768094  0.24231906
   0.25520609  0.24231906  0.24231906
   0.50610321  0.00000000  0.00000000
   0.00379751  0.50000000  0.00000000
   0.00379751  0.00000000  0.50000000
   0.00559801  0.23128499  0.50000000
   0.00559801  0.76871501  0.50000000
   0.71045280  0.50000000  0.50000000
   0.48985767  0.50000000  0.25688989
   0.00559801  0.50000000  0.23128499
   0.27398674  0.00000000  0.00000000
   0.00306699  0.73009739  0.00000000
   0.00306699  0.26990261  0.00000000
   0.73491629  0.00000000  0.00000000
   0.50368126  0.00000000  0.77020275
   0.00306699  0.00000000  0.73009739
   0.77373629  0.50000000  0.00000000
   0.50368126  0.22979725  0.00000000
   0.50368126  0.77020275  0.00000000
   0.23308710  0.50000000  0.00000000
   0.00559801  0.50000000  0.76871501
   0.48985767  0.50000000  0.74311011
   0.77373629  0.00000000  0.50000000
   0.48985767  0.74311011  0.50000000
   0.48985767  0.25688989  0.50000000
   0.23308710  0.00000000  0.50000000
   0.00306699  0.00000000  0.26990261
   0.50368126  0.00000000  0.22979725
 
 position of ions in cartesian coordinates  (Angst):
   5.21750577  5.39979200  5.39979200
   8.02053773  2.72366526  2.72366526
   8.02053773  8.07591874  2.72366526
   8.02053773  8.07591874  8.07591874
   8.02053773  2.72366526  8.07591874
   2.75611963  2.61694507  8.18263893
   2.75611963  8.18263893  8.18263893
   2.75611963  8.18263893  2.61694507
   2.75611963  2.61694507  2.61694507
   5.46570416  0.00000000  0.00000000
   0.04101156  5.39979200  0.00000000
   0.04101156  0.00000000  5.39979200
   0.06045617  2.49778167  5.39979200
   0.06045617  8.30180233  5.39979200
   7.67259474  5.39979200  5.39979200
   5.29025901  5.39979200  2.77430397
   0.06045617  5.39979200  2.49778167
   2.95894282  0.00000000  0.00000000
   0.03312219  7.88474808  0.00000000
   0.03312219  2.91483592  0.00000000
   7.93679020  0.00000000  0.00000000
   5.43954812  0.00000000  8.31786925
   0.03312219  0.00000000  7.88474808
   8.35603007  5.39979200  0.00000000
   5.43954812  2.48171475  0.00000000
   5.43954812  8.31786925  0.00000000
   2.51724368  5.39979200  0.00000000
   0.06045617  5.39979200  8.30180233
   5.29025901  5.39979200  8.02528003
   8.35603007  0.00000000  5.39979200
   5.29025901  8.02528003  5.39979200
   5.29025901  2.77430397  5.39979200
   2.51724368  0.00000000  5.39979200
   0.03312219  0.00000000  2.91483592
   5.43954812  0.00000000  2.48171475
 


--------------------------------------------------------------------------------------------------------


 use serial FFT for orbitals x direction half grid
 k-point  1 :   0.0000 0.0000 0.0000  plane waves:   11492

 maximum and minimum number of plane-waves per node :     11492    11492

 maximum number of plane-waves:     11492
 maximum index in each direction: 
   IXMAX=   17   IYMAX=   17   IZMAX=   17
   IXMIN=    0   IYMIN=  -17   IZMIN=  -17


 serial   3D FFT for wavefunctions
 parallel 3D FFT for charge:
    minimum data exchange during FFTs selected (reduces bandwidth)


 total amount of memory used by VASP MPI-rank0    59071. kBytes
=======================================================================

   base      :      30000. kBytes
   nonlr-proj:       4552. kBytes
   fftplans  :       2611. kBytes
   grid      :      18375. kBytes
   one-center:        544. kBytes
   wavefun   :       2989. kBytes
 
     INWAV:  cpu time    0.1740: real time    0.1956
 Broyden mixing: mesh for mixing (old mesh)
   NGX = 35   NGY = 35   NGZ = 35
  (NGX  =108   NGY  =108   NGZ  =108)
  gives a total of  42875 points

 charge density for first step will be calculated from the start-wavefunctions


--------------------------------------------------------------------------------------------------------


 Maximum index for non-local projection operator         2085
 Maximum index for augmentation-charges          373 (set IRDMAX)


--------------------------------------------------------------------------------------------------------


 initial charge from wavefunction
 First call to EWALD:  gamma=   0.164
 Maximum number of real-space cells 3x 3x 3
 Maximum number of reciprocal cells 3x 3x 3

    FEWALD:  cpu time    0.0021: real time    0.0021


--------------------------------------- Iteration      1(   1)  ---------------------------------------


    POTLOK:  cpu time    0.0889: real time    0.0931
    SETDIJ:  cpu time    0.0118: real time    0.0125
     EDDAV:  cpu time    0.5116: real time    0.5130
       DOS:  cpu time    0.0004: real time    0.0004
    CHARGE:  cpu time    0.0724: real time    0.0724
    MIXING:  cpu time    0.0021: real time    0.0022
    --------------------------------------------
      LOOP:  cpu time    0.6872: real time    0.6937

 eigenvalue-minimisations  :   432
 total energy-change (2. order) :-0.1450214E+03  (-0.3293901E-07)
 number of electron     273.9999837 magnetization      -0.0000000
 augmentation part      -37.9971096 magnetization      -0.0000001

 Broyden mixing:
  rms(total) = 0.81544E-04    rms(broyden)= 0.81543E-04
  rms(prec ) = 0.93713E-04
  weight for this iteration     100.00

 Free energy of the ion-electron system (eV)
  ---------------------------------------------------
  alpha Z        PSCENC =       568.22060483
  Ewald energy   TEWEN  =    -12096.88118656
  -Hartree energ DENC   =     -4954.77870088
  -exchange      EXHF   =         0.00000000
  -V(xc)+E(xc)   XCENC  =       654.22240530
  PAW double counting   =     18932.49788229   -18776.68739762
  entropy T*S    EENTRO =        -0.00000000
  eigenvalues    EBANDS =     -2343.13392919
  atomic energy  EATOM  =     17871.51893459
  Solvation  Ediel_sol  =         0.00000000
  ---------------------------------------------------
  free energy    TOTEN  =      -145.02138724 eV

  energy without entropy =     -145.02138724  energy(sigma->0) =     -145.02138724


--------------------------------------------------------------------------------------------------------




--------------------------------------- Iteration      1(   2)  ---------------------------------------


    POTLOK:  cpu time    0.0784: real time    0.0817
    SETDIJ:  cpu time    0.0113: real time    0.0113
     EDDAV:  cpu time    0.5709: real time    0.5866
       DOS:  cpu time    0.0002: real time    0.0002
    CHARGE:  cpu time    0.0744: real time    0.0744
    MIXING:  cpu time    0.0024: real time    0.0024
    --------------------------------------------
      LOOP:  cpu time    0.7377: real time    0.7567

 eigenvalue-minimisations  :   528
 total energy-change (2. order) :-0.1412627E-07  (-0.1672783E-07)
 number of electron     273.9999837 magnetization      -0.0000000
 augmentation part      -37.9971255 magnetization       0.0000001

 Broyden mixing:
  rms(total) = 0.41244E-04    rms(broyden)= 0.41242E-04
  rms(prec ) = 0.54790E-04
  weight for this iteration     100.00

 eigenvalues of (default mixing * dielectric matrix)
  average eigenvalue GAMMA=   0.9496
  0.9496

 Free energy of the ion-electron system (eV)
  ---------------------------------------------------
  alpha Z        PSCENC =       568.22060483
  Ewald energy   TEWEN  =    -12096.88118656
  -Hartree energ DENC   =     -4954.77950084
  -exchange      EXHF   =         0.00000000
  -V(xc)+E(xc)   XCENC  =       654.22240504
  PAW double counting   =     18932.51159150   -18776.70101831
  entropy T*S    EENTRO =        -0.00000000
  eigenvalues    EBANDS =     -2343.13321750
  atomic energy  EATOM  =     17871.51893459
  Solvation  Ediel_sol  =         0.00000000
  ---------------------------------------------------
  free energy    TOTEN  =      -145.02138725 eV

  energy without entropy =     -145.02138725  energy(sigma->0) =     -145.02138725


--------------------------------------------------------------------------------------------------------




--------------------------------------- Iteration      1(   3)  ---------------------------------------


    POTLOK:  cpu time    0.0768: real time    0.0805
    SETDIJ:  cpu time    0.0113: real time    0.0113
     EDDAV:  cpu time    0.5547: real time    0.5574
       DOS:  cpu time    0.0002: real time    0.0002
    CHARGE:  cpu time    0.0744: real time    0.0744
    MIXING:  cpu time    0.0022: real time    0.0022
    --------------------------------------------
      LOOP:  cpu time    0.7196: real time    0.7261

 eigenvalue-minimisations  :   528
 total energy-change (2. order) :-0.1281660E-07  (-0.6412333E-08)
 number of electron     273.9999837 magnetization      -0.0000000
 augmentation part      -37.9971313 magnetization       0.0000001

 Broyden mixing:
  rms(total) = 0.25328E-04    rms(broyden)= 0.25327E-04
  rms(prec ) = 0.34906E-04
  weight for this iteration     100.00

 eigenvalues of (default mixing * dielectric matrix)
  average eigenvalue GAMMA=   1.5231
  0.9006  2.1456

 Free energy of the ion-electron system (eV)
  ---------------------------------------------------
  alpha Z        PSCENC =       568.22060483
  Ewald energy   TEWEN  =    -12096.88118656
  -Hartree energ DENC   =     -4954.77992732
  -exchange      EXHF   =         0.00000000
  -V(xc)+E(xc)   XCENC  =       654.22241730
  PAW double counting   =     18932.51749744   -18776.70684757
  entropy T*S    EENTRO =        -0.00000000
  eigenvalues    EBANDS =     -2343.13287998
  atomic energy  EATOM  =     17871.51893459
  Solvation  Ediel_sol  =         0.00000000
  ---------------------------------------------------
  free energy    TOTEN  =      -145.02138726 eV

  energy without entropy =     -145.02138726  energy(sigma->0) =     -145.02138726


--------------------------------------------------------------------------------------------------------




--------------------------------------- Iteration      1(   4)  ---------------------------------------


    POTLOK:  cpu time    0.1046: real time    0.1076
    SETDIJ:  cpu time    0.0113: real time    0.0113
     EDDAV:  cpu time    0.5448: real time    0.5451
       DOS:  cpu time    0.0002: real time    0.0002
    CHARGE:  cpu time    0.0758: real time    0.0758
    MIXING:  cpu time    0.0024: real time    0.0024
    --------------------------------------------
      LOOP:  cpu time    0.7392: real time    0.7425

 eigenvalue-minimisations  :   528
 total energy-change (2. order) :-0.1645458E-07  (-0.3812451E-08)
 number of electron     273.9999837 magnetization      -0.0000000
 augmentation part      -37.9971345 magnetization      -0.0000000

 Broyden mixing:
  rms(total) = 0.10090E-04    rms(broyden)= 0.10089E-04
  rms(prec ) = 0.14967E-04
  weight for this iteration     100.00

 eigenvalues of (default mixing * dielectric matrix)
  average eigenvalue GAMMA=   1.2697
  1.5801  0.9781  1.2510

 Free energy of the ion-electron system (eV)
  ---------------------------------------------------
  alpha Z        PSCENC =       568.22060483
  Ewald energy   TEWEN  =    -12096.88118656
  -Hartree energ DENC   =     -4954.78063062
  -exchange      EXHF   =         0.00000000
  -V(xc)+E(xc)   XCENC  =       654.22243198
  PAW double counting   =     18932.52868428   -18776.71785040
  entropy T*S    EENTRO =        -0.00000000
  eigenvalues    EBANDS =     -2343.13237539
  atomic energy  EATOM  =     17871.51893459
  Solvation  Ediel_sol  =         0.00000000
  ---------------------------------------------------
  free energy    TOTEN  =      -145.02138728 eV

  energy without entropy =     -145.02138728  energy(sigma->0) =     -145.02138728


--------------------------------------------------------------------------------------------------------




--------------------------------------- Iteration      1(   5)  ---------------------------------------


    POTLOK:  cpu time    0.0801: real time    0.0835
    SETDIJ:  cpu time    0.0111: real time    0.0124
     EDDAV:  cpu time    0.6053: real time    0.6236
       DOS:  cpu time    0.0002: real time    0.0002
    --------------------------------------------
      LOOP:  cpu time    0.6967: real time    0.7198

 eigenvalue-minimisations  :   528
 total energy-change (2. order) : 0.1797162E-08  (-0.2113225E-08)
 number of electron     273.9999837 magnetization      -0.0000000
 augmentation part      -37.9971345 magnetization      -0.0000000

 Free energy of the ion-electron system (eV)
  ---------------------------------------------------
  alpha Z        PSCENC =       568.22060483
  Ewald energy   TEWEN  =    -12096.88118656
  -Hartree energ DENC   =     -4954.78057805
  -exchange      EXHF   =         0.00000000
  -V(xc)+E(xc)   XCENC  =       654.22242987
  PAW double counting   =     18932.52916652   -18776.71831511
  entropy T*S    EENTRO =        -0.00000000
  eigenvalues    EBANDS =     -2343.13244338
  atomic energy  EATOM  =     17871.51893459
  Solvation  Ediel_sol  =         0.00000000
  ---------------------------------------------------
  free energy    TOTEN  =      -145.02138728 eV

  energy without entropy =     -145.02138728  energy(sigma->0) =     -145.02138728


--------------------------------------------------------------------------------------------------------




 average (electrostatic) potential at core
  the test charge radii are     1.1712  1.1312  1.0638  0.9406
  (the norm of the test charge is              1.0000)
       1 -92.6221       2 -49.6691       3 -49.6691       4 -49.6691       5 -49.6691
       6 -49.6865       7 -49.6865       8 -49.6865       9 -49.6865      10 -84.0898
      11 -84.0482      12 -84.0482      13 -94.1508      14 -94.1508      15 -94.7689
      16 -93.8057      17 -94.1508      18 -94.2362      19 -94.1340      20 -94.1340
      21 -94.2420      22 -94.2256      23 -94.1340      24 -94.1441      25 -94.2256
      26 -94.2256      27 -94.1304      28 -94.1508      29 -93.8057      30 -94.1441
      31 -93.8057      32 -93.8057      33 -94.1304      34 -94.1340      35 -94.2256
 
 
 
 E-fermi :   0.2562     XC(G=0):  -7.4658     alpha+bet : -7.2393


 spin component 1

 k-point     1 :       0.0000    0.0000    0.0000
  band No.  band energies     occupation 
      1     -49.0460      1.00000
      2     -48.9980      1.00000
      3     -48.9980      1.00000
      4     -27.0601      1.00000
      5     -27.0568      1.00000
      6     -27.0568      1.00000
      7     -27.0044      1.00000
      8     -27.0044      1.00000
      9     -27.0030      1.00000
     10     -27.0030      1.00000
     11     -27.0027      1.00000
     12     -27.0027      1.00000
     13     -19.9360      1.00000
     14     -19.9317      1.00000
     15     -19.9317      1.00000
     16     -19.9282      1.00000
     17     -19.9183      1.00000
     18     -19.9145      1.00000
     19     -19.9145      1.00000
     20     -19.9115      1.00000
     21     -14.5388      1.00000
     22     -14.0632      1.00000
     23     -13.9642      1.00000
     24     -13.9438      1.00000
     25     -13.7338      1.00000
     26     -13.7199      1.00000
     27     -13.6434      1.00000
     28     -13.6222      1.00000
     29     -13.6115      1.00000
     30     -13.6058      1.00000
     31     -13.5982      1.00000
     32     -13.5982      1.00000
     33     -13.5923      1.00000
     34     -13.5158      1.00000
     35     -13.5158      1.00000
     36     -13.5051      1.00000
     37     -13.5035      1.00000
     38     -13.4982      1.00000
     39     -13.4982      1.00000
     40     -13.4884      1.00000
     41     -13.3202      1.00000
     42     -13.3202      1.00000
     43     -13.1237      1.00000
     44      -7.9653      1.00000
     45      -6.8657      1.00000
     46      -6.8657      1.00000
     47      -6.8456      1.00000
     48      -6.8197      1.00000
     49      -6.7955      1.00000
     50      -6.7955      1.00000
     51      -6.7741      1.00000
     52      -6.7651      1.00000
     53      -6.7651      1.00000
     54      -6.7569      1.00000
     55      -6.7552      1.00000
     56      -6.7552      1.00000
     57      -6.7499      1.00000
     58      -6.7374      1.00000
     59      -6.7289      1.00000
     60      -6.7289      1.00000
     61      -6.7198      1.00000
     62      -6.7173      1.00000
     63      -6.7121      1.00000
     64      -6.7095      1.00000
     65      -6.7086      1.00000
     66      -6.7086      1.00000
     67      -6.6856      1.00000
     68      -6.6800      1.00000
     69      -3.5541      1.00000
     70      -3.4857      1.00000
     71      -3.3752      1.00000
     72      -3.3752      1.00000
     73      -3.3187      1.00000
     74      -3.2982      1.00000
     75      -3.2571      1.00000
     76      -3.1036      1.00000
     77      -3.0666      1.00000
     78      -2.9461      1.00000
     79      -2.9461      1.00000
     80      -2.9457      1.00000
     81      -2.9421      1.00000
     82      -2.9252      1.00000
     83      -2.8930      1.00000
     84      -2.7097      1.00000
     85      -2.6848      1.00000
     86      -2.6848      1.00000
     87      -2.6527      1.00000
     88      -2.6527      1.00000
     89      -2.5853      1.00000
     90      -2.4985      1.00000
     91      -2.4790      1.00000
     92      -2.4790      1.00000
     93      -2.4295      1.00000
     94      -2.4295      1.00000
     95      -2.3925      1.00000
     96      -2.3222      1.00000
     97      -2.3145      1.00000
     98      -2.3145      1.00000
     99      -2.1128      1.00000
    100      -2.1128      1.00000
    101      -1.7786      1.00000
    102      -1.7592      1.00000
    103      -1.7213      1.00000
    104      -1.7213      1.00000
    105      -1.7004      1.00000
    106      -1.6777      1.00000
    107      -1.6777      1.00000
    108      -1.6071      1.00000
    109      -1.6050      1.00000
    110      -1.6050      1.00000
    111      -1.5790      1.00000
    112      -1.5421      1.00000
    113      -1.5421      1.00000
    114      -1.4781      1.00000
    115      -1.3863      1.00000
    116      -1.3804      1.00000
    117      -1.3804      1.00000
    118      -1.3790      1.00000
    119      -1.3365      1.00000
    120      -1.3365      1.00000
    121      -1.2932      1.00000
    122      -1.2875      1.00000
    123      -1.2875      1.00000
    124      -1.2721      1.00000
    125      -1.2473      1.00000
    126      -1.2473      1.00000
    127      -1.1903      1.00000
    128      -1.1804      1.00000
    129      -1.1183      1.00000
    130      -1.1183      1.00000
    131      -0.9777      1.00000
    132      -0.9777      1.00000
    133      -0.9639      1.00000
    134      -0.9639      1.00000
    135      -0.9194      1.00000
    136      -0.7866      1.00000
    137       0.0043      1.00000
    138       2.7602      0.00000
    139       2.7602      0.00000
    140       2.7923      0.00000
    141       2.8840      0.00000
    142       2.9349      0.00000
    143       2.9349      0.00000
    144       3.0630      0.00000
    145       3.0630      0.00000
    146       3.0753      0.00000
    147       3.0828      0.00000
    148       4.3493      0.00000
    149       4.3493      0.00000
    150       4.6755      0.00000
    151       4.8283      0.00000
    152       5.0477      0.00000
    153       5.1397      0.00000
    154       5.6147      0.00000
    155       5.6159      0.00000
    156       5.6393      0.00000
    157       5.6582      0.00000
    158       5.6959      0.00000
    159       6.0654      0.00000
    160       6.0654      0.00000
    161       6.1305      0.00000
    162       6.3537      0.00000
    163       6.4210      0.00000
    164       6.4210      0.00000
    165       6.5585      0.00000
    166       6.5585      0.00000
    167       6.6497      0.00000
    168       6.7074      0.00000
    169       6.7265      0.00000
    170       6.8523      0.00000
    171       6.9552      0.00000
    172       7.0611      0.00000
    173       7.0908      0.00000
    174       7.0908      0.00000
    175       7.0937      0.00000
    176       7.1066      0.00000
    177       7.1148      0.00000
    178       7.1376      0.00000
    179       7.1376      0.00000
    180       7.2478      0.00000
    181       7.3184      0.00000
    182       7.3379      0.00000
    183       7.3912      0.00000
    184       7.4744      0.00000
    185       7.4744      0.00000
    186       7.6895      0.00000
    187       7.7250      0.00000
    188       7.9628      0.00000
    189       7.9901      0.00000
    190       8.0029      0.00000
    191       8.0210      0.00000
    192       8.0222      0.00000

 spin component 2

 k-point     1 :       0.0000    0.0000    0.0000
  band No.  band energies     occupation 
      1     -49.0460      1.00000
      2     -48.9980      1.00000
      3     -48.9980      1.00000
      4     -27.0601      1.00000
      5     -27.0568      1.00000
      6     -27.0568      1.00000
      7     -27.0044      1.00000
      8     -27.0044      1.00000
      9     -27.0030      1.00000
     10     -27.0030      1.00000
     11     -27.0027      1.00000
     12     -27.0027      1.00000
     13     -19.9360      1.00000
     14     -19.9317      1.00000
     15     -19.9317      1.00000
     16     -19.9282      1.00000
     17     -19.9183      1.00000
     18     -19.9145      1.00000
     19     -19.9145      1.00000
     20     -19.9115      1.00000
     21     -14.5388      1.00000
     22     -14.0632      1.00000
     23     -13.9642      1.00000
     24     -13.9438      1.00000
     25     -13.7338      1.00000
     26     -13.7199      1.00000
     27     -13.6434      1.00000
     28     -13.6222      1.00000
     29     -13.6115      1.00000
     30     -13.6058      1.00000
     31     -13.5982      1.00000
     32     -13.5982      1.00000
     33     -13.5923      1.00000
     34     -13.5158      1.00000
     35     -13.5158      1.00000
     36     -13.5051      1.00000
     37     -13.5035      1.00000
     38     -13.4982      1.00000
     39     -13.4982      1.00000
     40     -13.4884      1.00000
     41     -13.3202      1.00000
     42     -13.3202      1.00000
     43     -13.1237      1.00000
     44      -7.9653      1.00000
     45      -6.8657      1.00000
     46      -6.8657      1.00000
     47      -6.8456      1.00000
     48      -6.8197      1.00000
     49      -6.7955      1.00000
     50      -6.7955      1.00000
     51      -6.7741      1.00000
     52      -6.7651      1.00000
     53      -6.7651      1.00000
     54      -6.7569      1.00000
     55      -6.7552      1.00000
     56      -6.7552      1.00000
     57      -6.7499      1.00000
     58      -6.7374      1.00000
     59      -6.7289      1.00000
     60      -6.7289      1.00000
     61      -6.7198      1.00000
     62      -6.7173      1.00000
     63      -6.7121      1.00000
     64      -6.7095      1.00000
     65      -6.7086      1.00000
     66      -6.7086      1.00000
     67      -6.6856      1.00000
     68      -6.6800      1.00000
     69      -3.5541      1.00000
     70      -3.4857      1.00000
     71      -3.3752      1.00000
     72      -3.3752      1.00000
     73      -3.3187      1.00000
     74      -3.2982      1.00000
     75      -3.2571      1.00000
     76      -3.1036      1.00000
     77      -3.0666      1.00000
     78      -2.9461      1.00000
     79      -2.9461      1.00000
     80      -2.9457      1.00000
     81      -2.9421      1.00000
     82      -2.9252      1.00000
     83      -2.8930      1.00000
     84      -2.7097      1.00000
     85      -2.6848      1.00000
     86      -2.6848      1.00000
     87      -2.6527      1.00000
     88      -2.6527      1.00000
     89      -2.5853      1.00000
     90      -2.4985      1.00000
     91      -2.4790      1.00000
     92      -2.4790      1.00000
     93      -2.4295      1.00000
     94      -2.4295      1.00000
     95      -2.3925      1.00000
     96      -2.3222      1.00000
     97      -2.3145      1.00000
     98      -2.3145      1.00000
     99      -2.1128      1.00000
    100      -2.1128      1.00000
    101      -1.7786      1.00000
    102      -1.7592      1.00000
    103      -1.7213      1.00000
    104      -1.7213      1.00000
    105      -1.7004      1.00000
    106      -1.6777      1.00000
    107      -1.6777      1.00000
    108      -1.6071      1.00000
    109      -1.6050      1.00000
    110      -1.6050      1.00000
    111      -1.5790      1.00000
    112      -1.5421      1.00000
    113      -1.5421      1.00000
    114      -1.4781      1.00000
    115      -1.3863      1.00000
    116      -1.3804      1.00000
    117      -1.3804      1.00000
    118      -1.3790      1.00000
    119      -1.3365      1.00000
    120      -1.3365      1.00000
    121      -1.2932      1.00000
    122      -1.2875      1.00000
    123      -1.2875      1.00000
    124      -1.2721      1.00000
    125      -1.2473      1.00000
    126      -1.2473      1.00000
    127      -1.1903      1.00000
    128      -1.1804      1.00000
    129      -1.1183      1.00000
    130      -1.1183      1.00000
    131      -0.9777      1.00000
    132      -0.9777      1.00000
    133      -0.9639      1.00000
    134      -0.9639      1.00000
    135      -0.9194      1.00000
    136      -0.7866      1.00000
    137       0.0043      1.00000
    138       2.7602      0.00000
    139       2.7602      0.00000
    140       2.7923      0.00000
    141       2.8840      0.00000
    142       2.9349      0.00000
    143       2.9349      0.00000
    144       3.0630      0.00000
    145       3.0630      0.00000
    146       3.0753      0.00000
    147       3.0828      0.00000
    148       4.3493      0.00000
    149       4.3493      0.00000
    150       4.6755      0.00000
    151       4.8283      0.00000
    152       5.0477      0.00000
    153       5.1397      0.00000
    154       5.6147      0.00000
    155       5.6159      0.00000
    156       5.6393      0.00000
    157       5.6582      0.00000
    158       5.6959      0.00000
    159       6.0654      0.00000
    160       6.0654      0.00000
    161       6.1306      0.00000
    162       6.3537      0.00000
    163       6.4210      0.00000
    164       6.4210      0.00000
    165       6.5585      0.00000
    166       6.5585      0.00000
    167       6.6497      0.00000
    168       6.7075      0.00000
    169       6.7265      0.00000
    170       6.8523      0.00000
    171       6.9552      0.00000
    172       7.0611      0.00000
    173       7.0908      0.00000
    174       7.0908      0.00000
    175       7.0937      0.00000
    176       7.1066      0.00000
    177       7.1148      0.00000
    178       7.1376      0.00000
    179       7.1376      0.00000
    180       7.2478      0.00000
    181       7.3184      0.00000
    182       7.3379      0.00000
    183       7.3912      0.00000
    184       7.4744      0.00000
    185       7.4744      0.00000
    186       7.6895      0.00000
    187       7.7250      0.00000
    188       7.9600      0.00000
    189       7.9900      0.00000
    190       8.0032      0.00000
    191       8.0206      0.00000
    192       8.0208      0.00000


--------------------------------------------------------------------------------------------------------


 soft charge-density along one line, spin component           1
         0         1         2         3         4         5         6         7         8         9
 total charge-density along one line
 
 soft charge-density along one line, spin component           2
         0         1         2         3         4         5         6         7         8         9
 total charge-density along one line
 
 pseudopotential strength for first ion, spin component:           1
 41.734 -70.665  -0.000   0.000   0.065  -0.000   0.000   0.105
-70.665 122.130   0.000  -0.000  -0.109   0.000  -0.000  -0.175
 -0.000   0.000   9.531   0.000   0.000  15.186   0.000   0.000
  0.000  -0.000   0.000   9.531  -0.000   0.000  15.186  -0.000
  0.065  -0.109   0.000  -0.000   9.535   0.000  -0.000  15.192
 -0.000   0.000  15.186   0.000   0.000  24.206   0.000   0.000
  0.000  -0.000   0.000  15.186  -0.000   0.000  24.206  -0.000
  0.105  -0.175   0.000  -0.000  15.192   0.000  -0.000  24.215
  0.000  -0.000   0.003   0.000  -0.000   0.005   0.000  -0.000
  0.000  -0.000   0.000  -0.000   0.000   0.000  -0.000   0.000
 -0.002   0.003   0.000   0.000  -0.001   0.000   0.000  -0.002
 -0.000   0.000   0.000   0.003   0.000   0.000   0.005   0.000
  0.004  -0.005   0.000   0.000   0.002   0.000   0.000   0.004
 pseudopotential strength for first ion, spin component:           2
 41.734 -70.665  -0.000   0.000   0.065  -0.000   0.000   0.105
-70.665 122.130   0.000  -0.000  -0.109   0.000  -0.000  -0.175
 -0.000   0.000   9.531   0.000   0.000  15.186   0.000   0.000
  0.000  -0.000   0.000   9.531  -0.000   0.000  15.186  -0.000
  0.065  -0.109   0.000  -0.000   9.535   0.000  -0.000  15.192
 -0.000   0.000  15.186   0.000   0.000  24.206   0.000   0.000
  0.000  -0.000   0.000  15.186  -0.000   0.000  24.206  -0.000
  0.105  -0.175   0.000  -0.000  15.192   0.000  -0.000  24.215
  0.000  -0.000   0.003   0.000  -0.000   0.005   0.000  -0.000
  0.000  -0.000   0.000  -0.000   0.000   0.000  -0.000   0.000
 -0.002   0.003   0.000   0.000  -0.001   0.000   0.000  -0.002
 -0.000   0.000   0.000   0.003   0.000   0.000   0.005   0.000
  0.004  -0.005   0.000   0.000   0.002   0.000   0.000   0.004
 total augmentation occupancy for first ion, spin component:           1
  2.019  -0.040   0.000  -0.000  -0.401   0.000   0.000   0.136   0.000   0.000  -0.022   0.000   0.039
 -0.040   0.017   0.000   0.000   0.109   0.000  -0.000  -0.029  -0.000   0.000   0.005   0.000  -0.009
  0.000   0.000   2.546   0.000   0.000  -0.798   0.000   0.000   0.034  -0.000  -0.000   0.000  -0.000
 -0.000   0.000   0.000   2.546   0.000   0.000  -0.798  -0.000   0.000   0.000   0.000   0.034   0.000
 -0.401   0.109   0.000   0.000   2.764   0.000  -0.000  -0.881   0.000   0.000  -0.080  -0.000   0.139
  0.000   0.000  -0.798   0.000   0.000   0.268   0.000   0.000  -0.012  -0.000   0.000   0.000   0.000
  0.000  -0.000   0.000  -0.798  -0.000   0.000   0.268   0.000   0.000   0.000   0.000  -0.012   0.000
  0.136  -0.029   0.000  -0.000  -0.881   0.000  -0.000   0.302  -0.000   0.000   0.031   0.000  -0.053
  0.000   0.000   0.034   0.000   0.000  -0.012   0.000  -0.000   0.012   0.000   0.000   0.000  -0.000
  0.000   0.000  -0.000   0.000   0.000  -0.000   0.000   0.000   0.000   0.013   0.000   0.000   0.000
 -0.022   0.005   0.000   0.000  -0.080   0.000   0.000   0.031   0.000   0.000   0.055   0.000   0.004
  0.000   0.000   0.000   0.034  -0.000   0.000  -0.012   0.000   0.000   0.000   0.000   0.012  -0.000
  0.039  -0.009  -0.000   0.000   0.139   0.000   0.000  -0.053  -0.000  -0.000   0.004   0.000   0.049
 total augmentation occupancy for first ion, spin component:           2
 -0.000  -0.000   0.000   0.000   0.000  -0.000   0.000  -0.000  -0.000   0.000   0.000   0.000  -0.000
 -0.000   0.000   0.000   0.000   0.000   0.000   0.000   0.000   0.000   0.000  -0.000   0.000   0.000
  0.000   0.000  -0.000   0.000   0.000   0.000   0.000   0.000  -0.000   0.000   0.000   0.000   0.000
  0.000   0.000   0.000  -0.000   0.000   0.000   0.000   0.000   0.000   0.000   0.000  -0.000   0.000
  0.000   0.000   0.000   0.000   0.000   0.000   0.000  -0.000   0.000   0.000  -0.000   0.000   0.000
 -0.000   0.000   0.000   0.000   0.000  -0.000   0.000   0.000   0.000  -0.000   0.000   0.000   0.000
  0.000   0.000   0.000   0.000   0.000   0.000  -0.000   0.000   0.000   0.000  -0.000   0.000   0.000
 -0.000   0.000   0.000   0.000  -0.000   0.000   0.000   0.000   0.000   0.000   0.000   0.000  -0.000
 -0.000   0.000  -0.000   0.000   0.000   0.000   0.000   0.000   0.000  -0.000   0.000   0.000  -0.000
  0.000   0.000   0.000   0.000   0.000  -0.000   0.000   0.000  -0.000   0.000  -0.000   0.000  -0.000
  0.000  -0.000   0.000   0.000  -0.000   0.000  -0.000   0.000   0.000  -0.000   0.000   0.000  -0.000
  0.000  -0.000   0.000  -0.000   0.000   0.000   0.000   0.000   0.000   0.000   0.000   0.000  -0.000
 -0.000   0.000   0.000   0.000   0.000   0.000   0.000  -0.000  -0.000  -0.000  -0.000   0.000   0.000


------------------------ aborting loop because EDIFF is reached ----------------------------------------


 


 total charge     
 
# of ion       s       p       d       tot
------------------------------------------
    1        1.322   0.800   0.082   2.204
    2        1.845   4.714   0.014   6.573
    3        1.845   4.714   0.014   6.573
    4        1.845   4.714   0.014   6.573
    5        1.845   4.714   0.014   6.573
    6        1.843   4.714   0.015   6.573
    7        1.843   4.714   0.015   6.573
    8        1.843   4.714   0.015   6.573
    9        1.843   4.714   0.015   6.573
   10        2.177   6.031   1.312   9.519
   11        2.175   6.029   1.304   9.508
   12        2.175   6.029   1.304   9.508
   13        1.598   3.545   0.000   5.142
   14        1.598   3.545   0.000   5.142
   15        1.606   3.505   0.000   5.111
   16        1.602   3.508   0.000   5.111
   17        1.598   3.545   0.000   5.142
   18        1.598   3.549   0.000   5.147
   19        1.598   3.545   0.000   5.144
   20        1.598   3.545   0.000   5.144
   21        1.599   3.544   0.000   5.143
   22        1.599   3.546   0.000   5.145
   23        1.598   3.545   0.000   5.144
   24        1.599   3.544   0.000   5.143
   25        1.599   3.546   0.000   5.145
   26        1.599   3.546   0.000   5.145
   27        1.599   3.545   0.000   5.144
   28        1.598   3.545   0.000   5.142
   29        1.602   3.508   0.000   5.111
   30        1.599   3.544   0.000   5.143
   31        1.602   3.508   0.000   5.111
   32        1.602   3.508   0.000   5.111
   33        1.599   3.545   0.000   5.144
   34        1.598   3.545   0.000   5.144
   35        1.599   3.546   0.000   5.145
--------------------------------------------------
tot         59.392 137.954   4.119 201.465
 


 magnetization (x)
 
# of ion       s       p       d       tot
------------------------------------------
    1       -0.000  -0.000  -0.000  -0.000
    2       -0.000  -0.000   0.000  -0.000
    3       -0.000  -0.000   0.000  -0.000
    4       -0.000  -0.000   0.000  -0.000
    5       -0.000  -0.000   0.000  -0.000
    6       -0.000   0.000   0.000  -0.000
    7       -0.000   0.000   0.000  -0.000
    8       -0.000   0.000   0.000  -0.000
    9       -0.000  -0.000   0.000  -0.000
   10        0.000   0.000   0.000   0.000
   11       -0.000   0.000  -0.000  -0.000
   12       -0.000   0.000  -0.000  -0.000
   13        0.000  -0.000   0.000  -0.000
   14        0.000  -0.000   0.000  -0.000
   15       -0.000  -0.000   0.000  -0.000
   16       -0.000  -0.000   0.000  -0.000
   17        0.000  -0.000   0.000  -0.000
   18       -0.000  -0.000   0.000  -0.000
   19       -0.000  -0.000   0.000  -0.000
   20       -0.000   0.000   0.000  -0.000
   21       -0.000  -0.000   0.000  -0.000
   22        0.000  -0.000   0.000  -0.000
   23       -0.000  -0.000   0.000  -0.000
   24       -0.000  -0.000   0.000  -0.000
   25        0.000  -0.000   0.000  -0.000
   26        0.000  -0.000   0.000  -0.000
   27       -0.000   0.000   0.000   0.000
   28        0.000  -0.000   0.000  -0.000
   29       -0.000  -0.000   0.000  -0.000
   30       -0.000   0.000   0.000   0.000
   31       -0.000   0.000   0.000  -0.000
   32       -0.000   0.000   0.000   0.000
   33        0.000   0.000   0.000   0.000
   34       -0.000  -0.000   0.000  -0.000
   35        0.000  -0.000   0.000  -0.000
--------------------------------------------------
tot         -0.000  -0.000  -0.000  -0.000
 
    CHARGE:  cpu time    0.0718: real time    0.0719
    FORLOC:  cpu time    0.0107: real time    0.0107
    FORNL :  cpu time    0.1920: real time    0.1920
    STRESS:  cpu time    0.5802: real time    0.5828
    FORCOR:  cpu time    0.0808: real time    0.0808
    FORHAR:  cpu time    0.0172: real time    0.0172
    MIXING:  cpu time    0.0028: real time    0.0028
    OFIELD:  cpu time    0.0001: real time    0.0001

  FORCE on cell =-STRESS in cart. coord.  units (eV):
  Direction    XX          YY          ZZ          XY          YZ          ZX
  --------------------------------------------------------------------------------------
  Alpha Z   568.22060   568.22060   568.22060
  Ewald   -3956.19395 -4070.37058 -4070.37058     0.00000     0.00000     0.00000
  Hartree  1736.80940  1608.98590  1608.98590    -0.00000    -0.00000    -0.00000
  E(xc)   -1045.79429 -1045.26435 -1045.26435    -0.00000    -0.00000    -0.00000
  Local   -3121.61024 -2877.95067 -2877.95067    -0.00000     0.00000     0.00000
  n-local  2031.32412  2029.40843  2029.40843    -0.00000    -0.00000     0.00000
  augment  -568.60969  -568.03308  -568.03308     0.00000    -0.00000     0.00000
  Kinetic  4353.89257  4355.31259  4355.31259     0.00000     0.00000     0.00000
  Fock        0.00000     0.00000     0.00000     0.00000     0.00000     0.00000
  -------------------------------------------------------------------------------------
  Total      -1.96148     0.30885     0.30885     0.00000    -0.00000     0.00000
  in kB      -2.49501     0.39285     0.39285     0.00000    -0.00000     0.00000
  external pressure =       -0.57 kB  Pullay stress =        0.00 kB


 VOLUME and BASIS-vectors are now :
 -----------------------------------------------------------------------------
  energy-cutoff  :      400.00
  volume of cell :     1259.57
      direct lattice vectors                 reciprocal lattice vectors
    10.799584000  0.000000000  0.000000000     0.092596159  0.000000000  0.000000000
     0.000000000 10.799584000  0.000000000     0.000000000  0.092596159  0.000000000
     0.000000000  0.000000000 10.799584000     0.000000000  0.000000000  0.092596159

  length of vectors
    10.799584000 10.799584000 10.799584000     0.092596159  0.092596159  0.092596159


 FORCES acting on ions
    electron-ion (+dipol)            ewald-force                    non-local-force                 convergence-correction
 -----------------------------------------------------------------------------------------------
   0.678E+02 0.992E-12 -.145E-06   -.797E+02 0.128E-12 0.129E-12   0.119E+02 0.103E-24 -.414E-24   0.116E-04 0.336E-14 0.290E-13
   0.370E+01 -.357E+02 -.357E+02   -.388E+01 0.357E+02 0.357E+02   0.179E+00 0.358E-02 0.358E-02   -.150E-03 0.442E-04 0.442E-04
   0.370E+01 0.357E+02 -.357E+02   -.388E+01 -.357E+02 0.357E+02   0.179E+00 -.358E-02 0.358E-02   -.150E-03 -.442E-04 0.442E-04
   0.370E+01 0.357E+02 0.357E+02   -.388E+01 -.357E+02 -.357E+02   0.179E+00 -.358E-02 -.358E-02   -.150E-03 -.442E-04 -.442E-04
   0.370E+01 -.357E+02 0.357E+02   -.388E+01 0.357E+02 -.357E+02   0.179E+00 0.358E-02 -.358E-02   -.150E-03 0.442E-04 -.442E-04
   -.573E+01 -.616E+02 0.616E+02   0.587E+01 0.614E+02 -.614E+02   -.146E+00 0.166E+00 -.166E+00   0.152E-03 0.375E-04 -.375E-04
   -.573E+01 0.616E+02 0.616E+02   0.587E+01 -.614E+02 -.614E+02   -.146E+00 -.166E+00 -.166E+00   0.152E-03 -.375E-04 -.375E-04
   -.573E+01 0.616E+02 -.616E+02   0.587E+01 -.614E+02 0.614E+02   -.146E+00 -.166E+00 0.166E+00   0.152E-03 -.375E-04 0.375E-04
   -.573E+01 -.616E+02 -.616E+02   0.587E+01 0.614E+02 0.614E+02   -.146E+00 0.166E+00 0.166E+00   0.152E-03 0.375E-04 0.375E-04
   -.614E+01 0.171E-11 -.193E-06   0.635E+01 0.252E-10 0.252E-10   -.209E+00 0.165E-23 -.310E-24   -.180E-04 0.653E-15 0.136E-13
   -.103E+01 0.573E-12 0.450E-06   0.114E+01 0.307E-12 -.187E-13   -.104E+00 0.000E+00 0.000E+00   0.426E-04 -.321E-13 0.123E-12
   -.103E+01 0.405E-13 0.418E-06   0.114E+01 -.268E-13 0.343E-12   -.104E+00 -.165E-23 -.414E-24   0.426E-04 -.268E-13 0.729E-13
   -.161E+02 -.240E+03 0.370E-05   0.161E+02 0.241E+03 0.123E-12   0.404E-01 -.102E+01 0.000E+00   -.392E-05 0.294E-04 -.216E-13
   -.161E+02 0.240E+03 0.180E-05   0.161E+02 -.241E+03 0.115E-12   0.404E-01 0.102E+01 0.000E+00   -.392E-05 -.294E-04 0.367E-13
   -.882E+02 -.175E-11 0.420E-05   0.910E+02 0.128E-12 0.135E-12   -.288E+01 0.000E+00 0.000E+00   -.131E-03 -.542E-14 0.258E-14
   0.219E+02 0.201E-11 0.332E+02   -.219E+02 0.140E-11 -.349E+02   0.189E-01 0.000E+00 0.168E+01   0.606E-05 0.348E-13 0.491E-04
   -.161E+02 0.167E-12 -.240E+03   0.161E+02 0.115E-12 0.241E+03   0.404E-01 0.000E+00 -.102E+01   -.392E-05 -.247E-13 0.294E-04
   0.200E+03 0.121E-12 -.625E-06   -.202E+03 0.170E-11 0.169E-11   0.112E+01 0.000E+00 0.414E-24   0.967E-04 0.486E-13 0.278E-13
   0.451E+01 -.189E+03 0.235E-05   -.457E+01 0.190E+03 -.133E-13   0.538E-01 -.100E+01 0.000E+00   0.538E-05 -.128E-04 -.756E-14
   0.451E+01 0.189E+03 -.928E-05   -.457E+01 -.190E+03 -.302E-13   0.538E-01 0.100E+01 0.000E+00   0.538E-05 0.128E-04 0.349E-13
   -.209E+03 0.123E-12 -.599E-06   0.210E+03 0.165E-11 0.186E-11   -.100E+01 0.165E-23 0.000E+00   -.955E-04 0.475E-14 -.260E-13
   -.652E+00 0.147E-12 0.219E+03   0.651E+00 0.167E-11 -.220E+03   0.282E-02 -.827E-24 0.108E+01   -.753E-05 0.276E-13 -.309E-04
   0.451E+01 0.652E-12 -.189E+03   -.457E+01 -.204E-13 0.190E+03   0.538E-01 0.000E+00 -.100E+01   0.538E-05 -.114E-13 -.128E-04
   0.203E+03 -.193E-11 -.483E-05   -.204E+03 0.123E-11 -.206E-11   0.103E+01 0.000E+00 0.000E+00   -.129E-03 0.396E-13 0.458E-13
   -.652E+00 -.219E+03 0.436E-05   0.651E+00 0.220E+03 0.157E-11   0.282E-02 -.108E+01 0.827E-24   -.753E-05 0.309E-04 -.139E-13
   -.652E+00 0.219E+03 -.929E-05   0.651E+00 -.220E+03 0.158E-11   0.282E-02 0.108E+01 0.000E+00   -.753E-05 -.309E-04 -.196E-13
   -.204E+03 0.160E-12 -.255E-05   0.205E+03 0.123E-11 0.249E-11   -.104E+01 0.000E+00 0.000E+00   0.111E-03 -.895E-14 -.487E-13
   -.161E+02 0.207E-12 0.240E+03   0.161E+02 0.106E-12 -.241E+03   0.404E-01 0.000E+00 0.102E+01   -.392E-05 0.561E-13 -.294E-04
   0.219E+02 -.591E-12 -.332E+02   -.219E+02 0.141E-11 0.349E+02   0.189E-01 0.000E+00 -.168E+01   0.606E-05 0.297E-13 -.491E-04
[...]
      5.439548  0.000000  2.481715     0.101897   -0.002927    0.003472  
 
 102 f  =    0.320752 THz     2.015341 2PiTHz   10.699119 cm-1     1.326522 meV
             X         Y         Z           dx          dy          dz
      5.217506  5.399792  5.399792    -0.000000    0.000000    0.000000  
      8.020538  2.723665  2.723665     0.000000   -0.002153    0.002153  
      8.020538  8.075919  2.723665    -0.000000   -0.002153   -0.002153  
      8.020538  8.075919  8.075919     0.000000    0.002153   -0.002153  
      8.020538  2.723665  8.075919    -0.000000    0.002153    0.002153  
      2.756120  2.616945  8.182639     0.000000   -0.062163   -0.062163  
      2.756120  8.182639  8.182639     0.000000   -0.062163    0.062163  
      2.756120  8.182639  2.616945    -0.000000    0.062163    0.062163  
      2.756120  2.616945  2.616945     0.000000    0.062163   -0.062163  
      5.465704  0.000000  0.000000    -0.000000    0.000000    0.000000  
      0.041012  5.399792  0.000000     0.000000    0.000000    0.000000  
      0.041012  0.000000  5.399792    -0.000000    0.000000   -0.000000  
      0.060456  2.497782  5.399792    -0.000000    0.000000    0.341202  
      0.060456  8.301802  5.399792     0.000000    0.000000   -0.341202  
      7.672595  5.399792  5.399792    -0.000000    0.000000    0.000000  
      5.290259  5.399792  2.774304    -0.000000    0.082512    0.000000  
      0.060456  5.399792  2.497782     0.000000   -0.341202    0.000000  
      2.958943  0.000000  0.000000     0.000000    0.000000    0.000000  
      0.033122  7.884748  0.000000    -0.000000    0.000000    0.344575  
      0.033122  2.914836  0.000000     0.000000    0.000000   -0.344575  
      7.936790  0.000000  0.000000    -0.000000    0.000000   -0.000000  
      5.439548  0.000000  8.317869    -0.000000    0.017413    0.000000  
      0.033122  0.000000  7.884748     0.000000   -0.344575   -0.000000  
      8.356030  5.399792  0.000000     0.000000   -0.000000    0.000000  
      5.439548  2.481715  0.000000     0.000000    0.000000    0.017413  
      5.439548  8.317869  0.000000    -0.000000    0.000000   -0.017413  
      2.517244  5.399792  0.000000     0.000000    0.000000    0.000000  
      0.060456  5.399792  8.301802    -0.000000    0.341202    0.000000  
      5.290259  5.399792  8.025280     0.000000   -0.082512    0.000000  
      8.356030  0.000000  5.399792    -0.000000    0.000000    0.000000  
      5.290259  8.025280  5.399792    -0.000000    0.000000    0.082512  
      5.290259  2.774304  5.399792     0.000000    0.000000   -0.082512  
      2.517244  0.000000  5.399792    -0.000000    0.000000   -0.000000  
      0.033122  0.000000  2.914836    -0.000000    0.344575   -0.000000  
      5.439548  0.000000  2.481715     0.000000   -0.017413    0.000000  
 
 103 f/i=    0.219353 THz     1.378238 2PiTHz    7.316840 cm-1     0.907173 meV
             X         Y         Z           dx          dy          dz
      5.217506  5.399792  5.399792     0.000000   -0.002176   -0.193666  
      8.020538  2.723665  2.723665    -0.033885    0.005935   -0.234661  
      8.020538  8.075919  2.723665    -0.033131   -0.011211   -0.234854  
      8.020538  8.075919  8.075919     0.033885    0.005935   -0.234661  
      8.020538  2.723665  8.075919     0.033131   -0.011211   -0.234854  
      2.756120  2.616945  8.182639    -0.029874    0.005644   -0.273386  
      2.756120  8.182639  8.182639    -0.030553   -0.011791   -0.273582  
      2.756120  8.182639  2.616945     0.029874    0.005644   -0.273386  
      2.756120  2.616945  2.616945     0.030553   -0.011791   -0.273582  
      5.465704  0.000000  0.000000     0.000000   -0.002037   -0.181277  
      0.041012  5.399792  0.000000     0.000000   -0.001993   -0.207950  
      0.041012  0.000000  5.399792     0.000000   -0.002337   -0.177372  
      0.060456  2.497782  5.399792    -0.000137   -0.001496   -0.104229  
      0.060456  8.301802  5.399792     0.000137   -0.001496   -0.104229  
      7.672595  5.399792  5.399792     0.000000   -0.000662   -0.058945  
      5.290259  5.399792  2.774304     0.068864   -0.001123   -0.117039  
      0.060456  5.399792  2.497782    -0.012230   -0.001171   -0.133090  
      2.958943  0.000000  0.000000     0.000000   -0.001627   -0.144812  
      0.033122  7.884748  0.000000    -0.000529   -0.001216   -0.138224  
      0.033122  2.914836  0.000000     0.000529   -0.001216   -0.138224  
      7.936790  0.000000  0.000000     0.000000   -0.000933   -0.083022  
      5.439548  0.000000  8.317869     0.026679   -0.001183   -0.109985  
      0.033122  0.000000  7.884748    -0.047081   -0.001553   -0.108187  
      8.356030  5.399792  0.000000     0.000000   -0.001797   -0.154991  
      5.439548  2.481715  0.000000    -0.000300   -0.001236   -0.105279  
      5.439548  8.317869  0.000000     0.000300   -0.001236   -0.105279  
      2.517244  5.399792  0.000000     0.000000   -0.000702   -0.116023  
      0.060456  5.399792  8.301802     0.012230   -0.001171   -0.133090  
      5.290259  5.399792  8.025280    -0.068864   -0.001123   -0.117039  
      8.356030  0.000000  5.399792     0.000000   -0.001742   -0.159903  
      5.290259  8.025280  5.399792    -0.000774   -0.001315   -0.099949  
      5.290259  2.774304  5.399792     0.000774   -0.001315   -0.099949  
      2.517244  0.000000  5.399792     0.000000   -0.001304   -0.062473  
      0.033122  0.000000  2.914836     0.047081   -0.001553   -0.108187  
      5.439548  0.000000  2.481715    -0.026679   -0.001183   -0.109985  
 
 104 f/i=    0.219353 THz     1.378238 2PiTHz    7.316840 cm-1     0.907173 meV
             X         Y         Z           dx          dy          dz
      5.217506  5.399792  5.399792     0.000000   -0.193666    0.002176  
      8.020538  2.723665  2.723665    -0.033131   -0.234854    0.011211  
      8.020538  8.075919  2.723665     0.033885   -0.234661   -0.005935  
      8.020538  8.075919  8.075919     0.033131   -0.234854    0.011211  
      8.020538  2.723665  8.075919    -0.033885   -0.234661   -0.005935  
      2.756120  2.616945  8.182639     0.030553   -0.273582    0.011791  
      2.756120  8.182639  8.182639    -0.029874   -0.273386   -0.005644  
      2.756120  8.182639  2.616945    -0.030553   -0.273582    0.011791  
      2.756120  2.616945  2.616945     0.029874   -0.273386   -0.005644  
      5.465704  0.000000  0.000000     0.000000   -0.181277    0.002037  
      0.041012  5.399792  0.000000     0.000000   -0.177372    0.002337  
      0.041012  0.000000  5.399792     0.000000   -0.207950    0.001993  
      0.060456  2.497782  5.399792    -0.012230   -0.133090    0.001171  
      0.060456  8.301802  5.399792     0.012230   -0.133090    0.001171  
      7.672595  5.399792  5.399792     0.000000   -0.058945    0.000662  
      5.290259  5.399792  2.774304    -0.000774   -0.099949    0.001315  
      0.060456  5.399792  2.497782     0.000137   -0.104229    0.001496  
      2.958943  0.000000  0.000000     0.000000   -0.144812    0.001627  
      0.033122  7.884748  0.000000    -0.047081   -0.108187    0.001553  
      0.033122  2.914836  0.000000     0.047081   -0.108187    0.001553  
      7.936790  0.000000  0.000000     0.000000   -0.083022    0.000933  
      5.439548  0.000000  8.317869    -0.000300   -0.105279    0.001236  
      0.033122  0.000000  7.884748     0.000529   -0.138224    0.001216  
      8.356030  5.399792  0.000000     0.000000   -0.159903    0.001742  
      5.439548  2.481715  0.000000    -0.026679   -0.109985    0.001183  
      5.439548  8.317869  0.000000     0.026679   -0.109985    0.001183  
      2.517244  5.399792  0.000000     0.000000   -0.062473    0.001304  
      0.060456  5.399792  8.301802    -0.000137   -0.104229    0.001496  
      5.290259  5.399792  8.025280     0.000774   -0.099949    0.001315  
      8.356030  0.000000  5.399792     0.000000   -0.154991    0.001797  
      5.290259  8.025280  5.399792    -0.068864   -0.117039    0.001123  
      5.290259  2.774304  5.399792     0.068864   -0.117039    0.001123  
      2.517244  0.000000  5.399792     0.000000   -0.116023    0.000702  
      0.033122  0.000000  2.914836    -0.000529   -0.138224    0.001216  
      5.439548  0.000000  2.481715     0.000300   -0.105279    0.001236  
 
 105 f/i=    0.285761 THz     1.795487 2PiTHz    9.531948 cm-1     1.181811 meV
             X         Y         Z           dx          dy          dz
      5.217506  5.399792  5.399792     0.199299    0.000000    0.000000  
      8.020538  2.723665  2.723665     0.266108    0.020417    0.020417  
      8.020538  8.075919  2.723665     0.266108   -0.020417    0.020417  
      8.020538  8.075919  8.075919     0.266108   -0.020417   -0.020417  
      8.020538  2.723665  8.075919     0.266108    0.020417   -0.020417  
      2.756120  2.616945  8.182639     0.295406   -0.013050    0.013050  
      2.756120  8.182639  8.182639     0.295406    0.013050    0.013050  
      2.756120  8.182639  2.616945     0.295406    0.013050   -0.013050  
      2.756120  2.616945  2.616945     0.295406   -0.013050   -0.013050  
      5.465704  0.000000  0.000000     0.163565    0.000000    0.000000  
      0.041012  5.399792  0.000000     0.157101    0.000000    0.000000  
      0.041012  0.000000  5.399792     0.157101    0.000000    0.000000  
      0.060456  2.497782  5.399792     0.085677   -0.000453    0.000000  
      0.060456  8.301802  5.399792     0.085677    0.000453    0.000000  
      7.672595  5.399792  5.399792     0.111091    0.000000    0.000000  
      5.290259  5.399792  2.774304     0.123257    0.000000    0.000128  
      0.060456  5.399792  2.497782     0.085677    0.000000   -0.000453  
      2.958943  0.000000  0.000000     0.101179    0.000000    0.000000  
      0.033122  7.884748  0.000000     0.108134    0.000019    0.000000  
      0.033122  2.914836  0.000000     0.108134   -0.000019    0.000000  
      7.936790  0.000000  0.000000     0.099839    0.000000    0.000000  
      5.439548  0.000000  8.317869     0.097838    0.000000   -0.000695  
      0.033122  0.000000  7.884748     0.108134    0.000000    0.000019  
      8.356030  5.399792  0.000000     0.097831    0.000000    0.000000  
      5.439548  2.481715  0.000000     0.097838    0.000695    0.000000  
      5.439548  8.317869  0.000000     0.097838   -0.000695    0.000000  
      2.517244  5.399792  0.000000     0.100680    0.000000    0.000000  
      0.060456  5.399792  8.301802     0.085677    0.000000    0.000453  
      5.290259  5.399792  8.025280     0.123257    0.000000   -0.000128  
      8.356030  0.000000  5.399792     0.097831    0.000000    0.000000  
      5.290259  8.025280  5.399792     0.123257   -0.000128    0.000000  
      5.290259  2.774304  5.399792     0.123257    0.000128    0.000000  
      2.517244  0.000000  5.399792     0.100680    0.000000    0.000000  
      0.033122  0.000000  2.914836     0.108134    0.000000   -0.000019  
      5.439548  0.000000  2.481715     0.097838    0.000000    0.000695  
 

 ELASTIC MODULI CONTR FROM IONIC RELAXATION (kBar)
 Direction    XX          YY          ZZ          XY          YZ          ZX
 --------------------------------------------------------------------------------
 XX        -405.4177    -77.1480    -77.1480     -0.0000     -0.0000      0.0000
 YY         -77.1480   -450.7627    -75.3305     -0.0000      0.0000      0.0000
 ZZ         -77.1480    -75.3305   -450.7627     -0.0000      0.0000      0.0000
 XY          -0.0000     -0.0000     -0.0000    -64.2431      0.0000      0.0000
 YZ          -0.0000      0.0000     -0.0000     -0.0000    -54.0297     -0.0000
 ZX           0.0000      0.0000      0.0000      0.0000     -0.0000    -64.2432
 --------------------------------------------------------------------------------



--------------------------------------------------------------------------------------------------------


  LATTYP: Found a simple cubic cell.
 ALAT       =    10.7995840000
  
  Lattice vectors:
  
 A1 = (  10.7995840000,   0.0000000000,   0.0000000000)
 A2 = (   0.0000000000,  10.7995840000,   0.0000000000)
 A3 = (   0.0000000000,   0.0000000000,  10.7995840000)


Analysis of symmetry for initial positions (statically):
=====================================================================
 Subroutine PRICEL returns:
 Original cell was already a primitive cell.
 

 Routine SETGRP: Setting up the symmetry group for a 
 simple cubic supercell.


 Subroutine GETGRP returns: Found  8 space group operations
 (whereof  8 operations were pure point group operations)
 out of a pool of 48 trial point group operations.


The static configuration has the point symmetry C_4v.


Analysis of symmetry for dynamics (positions and initial velocities):
=====================================================================
 Subroutine PRICEL returns:
 Original cell was already a primitive cell.
 

 Routine SETGRP: Setting up the symmetry group for a 
 simple cubic supercell.


 Subroutine GETGRP returns: Found  8 space group operations
 (whereof  8 operations were pure point group operations)
 out of a pool of 48 trial point group operations.


The dynamic configuration has the point symmetry C_4v.


Analysis of structural, dynamic, and magnetic symmetry:
=====================================================================
 Subroutine PRICEL returns:
 Original cell was already a primitive cell.
 

 Routine SETGRP: Setting up the symmetry group for a 
 simple cubic supercell.


 Subroutine GETGRP returns: Found  8 space group operations
 (whereof  8 operations were pure point group operations)
 out of a pool of 48 trial point group operations.


The magnetic configuration has the point symmetry C_4v.


 Subroutine INISYM returns: Found  8 space group operations
 (whereof  8 operations are pure point group operations),
 and found     1 'primitive' translations

 
 KPOINTS: K-Mesh Generated with KP-Resolved Value 

Automatic generation of k-mesh.
Space group operators:
 irot       det(A)        alpha          n_x          n_y          n_z        tau_x        tau_y        tau_z
    1     1.000000     0.000000     1.000000     0.000000     0.000000     0.000000     0.000000     0.000000
    2    -1.000000   180.000000     0.000000     0.707107     0.707107     0.000000     0.000000     0.000000
    3    -1.000000   180.000000     0.000000     0.000000     1.000000     0.000000     0.000000     0.000000
    4     1.000000    90.000000    -1.000000     0.000000     0.000000     0.000000     0.000000     0.000000
    5     1.000000   180.000000     1.000000     0.000000     0.000000     0.000000     0.000000     0.000000
    6     1.000000    90.000000     1.000000     0.000000     0.000000     0.000000     0.000000     0.000000
    7    -1.000000   180.000000     0.000000     1.000000     0.000000     0.000000     0.000000     0.000000
    8    -1.000000   180.000000     0.000000    -0.707107     0.707107     0.000000     0.000000     0.000000
 
 Subroutine IBZKPT returns following result:
 ===========================================
 
 Found      1 irreducible k-points:
 
 Following reciprocal coordinates:
            Coordinates               Weight
  0.000000  0.000000  0.000000      1.000000
 
 Following cartesian coordinates:
            Coordinates               Weight
  0.000000  0.000000  0.000000      1.000000
 
 writing wavefunctions
     LOOP+:  cpu time   10.8649: real time   11.5197
    4ORBIT:  cpu time    0.0000: real time    0.0000
 


 total charge     
 
# of ion       s       p       d       tot
------------------------------------------
    1        1.322   0.800   0.082   2.204
    2        1.845   4.714   0.014   6.573
    3        1.845   4.714   0.014   6.573
    4        1.845   4.714   0.014   6.573
    5        1.845   4.714   0.014   6.573
    6        1.843   4.714   0.016   6.573
    7        1.843   4.714   0.016   6.573
    8        1.843   4.714   0.015   6.573
    9        1.843   4.714   0.015   6.573
   10        2.177   6.031   1.312   9.519
   11        2.175   6.029   1.304   9.508
   12        2.175   6.029   1.304   9.508
   13        1.598   3.545   0.000   5.142
   14        1.598   3.545   0.000   5.142
   15        1.606   3.505   0.000   5.111
   16        1.602   3.508   0.000   5.111
   17        1.598   3.544   0.000   5.142
   18        1.598   3.549   0.000   5.147
   19        1.598   3.545   0.000   5.144
   20        1.598   3.545   0.000   5.144
   21        1.599   3.544   0.000   5.143
   22        1.599   3.546   0.000   5.145
   23        1.598   3.545   0.000   5.144
   24        1.599   3.544   0.000   5.143
   25        1.599   3.546   0.000   5.145
   26        1.599   3.546   0.000   5.145
   27        1.599   3.544   0.000   5.144
   28        1.598   3.545   0.000   5.142
   29        1.602   3.508   0.000   5.111
   30        1.599   3.544   0.000   5.143
   31        1.602   3.508   0.000   5.111
   32        1.602   3.508   0.000   5.111
   33        1.599   3.545   0.000   5.144
   34        1.598   3.545   0.000   5.144
   35        1.599   3.546   0.000   5.145
--------------------------------------------------
tot         59.392 137.954   4.119 201.465
 


 magnetization (x)
 
# of ion       s       p       d       tot
------------------------------------------
    1        0.000  -0.000   0.000  -0.000
    2       -0.000  -0.000  -0.000  -0.000
    3       -0.000  -0.000   0.000  -0.000
    4       -0.000  -0.000  -0.000  -0.000
    5       -0.000  -0.000   0.000  -0.000
    6       -0.000  -0.000  -0.000  -0.000
    7        0.000  -0.000  -0.000   0.000
    8        0.000   0.000  -0.000   0.000
    9       -0.000   0.000  -0.000  -0.000
   10       -0.000   0.000   0.000   0.000
   11        0.000   0.000   0.000   0.000
   12        0.000  -0.000   0.000   0.000
   13       -0.000   0.000   0.000   0.000
   14        0.000   0.000   0.000   0.000
   15       -0.000   0.000   0.000   0.000
   16        0.000   0.000   0.000   0.000
   17        0.000   0.000   0.000   0.000
   18       -0.000   0.000   0.000   0.000
   19        0.000   0.000   0.000   0.000
   20        0.000   0.000   0.000   0.000
   21        0.000   0.000   0.000   0.000
   22        0.000   0.000   0.000   0.000
   23       -0.000   0.000   0.000   0.000
   24        0.000   0.000   0.000   0.000
   25       -0.000   0.000   0.000   0.000
   26       -0.000   0.000   0.000  -0.000
   27        0.000   0.000   0.000   0.000
   28       -0.000  -0.000   0.000  -0.000
   29        0.000  -0.000   0.000  -0.000
   30        0.000   0.000   0.000   0.000
   31       -0.000   0.000   0.000   0.000
   32       -0.000   0.000   0.000   0.000
   33        0.000   0.000   0.000   0.000
   34       -0.000   0.000   0.000   0.000
   35        0.000  -0.000   0.000  -0.000
--------------------------------------------------
tot         -0.000   0.000   0.000  -0.000
 

 total amount of memory used by VASP MPI-rank0    59071. kBytes
=======================================================================

   base      :      30000. kBytes
   nonlr-proj:       4552. kBytes
   fftplans  :       2611. kBytes
   grid      :      18375. kBytes
   one-center:        544. kBytes
   wavefun   :       2989. kBytes
 
  
  
 General timing and accounting informations for this job:
 ========================================================
  
                  Total CPU time used (sec):      455.239
                            User time (sec):      425.451
                          System time (sec):       29.788
                         Elapsed time (sec):      470.683
  
                   Maximum memory used (kb):      190360.
                   Average memory used (kb):           0.
  
                          Minor page faults:      2257725
                          Major page faults:            0
                 Voluntary context switches:         5702
